w/ mol2SYBYL2lmp > atom_typing v1.4 / 2 May 2023 w/DREIDING atom-types > all2lmp: v1.7 / 2 May 2023  Class: d > bond_react_merge: v1.7 / 2 May 2023 datafile (filetag: data1) > auto_morse_bond version: v1.5 / 28 July 2023

32 atoms
33 bonds
52 angles
75 dihedrals
20 impropers

9 atom types
13 bond types
7 angle types
10 dihedral types
3 improper types

-4.766406250 3.792093750 xlo xhi
-4.756540625 5.894259375 ylo yhi
-2.657343750 3.590856250 zlo zhi

Atom Type Labels

 1  C_1
 2  C_2
 3  C_3
 4  C_R
 5  H_
 6  N_1
 7  N_2
 8  N_R
 9  O_3

Bond Type Labels

 1  C_1-N_2
 2  C_1-N_1
 3  C_1-O_3
 4  C_2-O_3
 5  C_2-N_2
 6  C_2-N_1
 7  C_3-C_R
 8  C_3-C_3
 9  C_R-O_3
10  C_R-C_R
11  C_R-N_R
12  H_-C_3
13  H_-C_R

Angle Type Labels

 1  X-C_1-X
 2  X-C_2-X
 3  X-C_3-X
 4  X-C_R-X
 5  X-N_2-X
 6  X-N_R-X
 7  X-O_3-X

Dihedral Type Labels

 1  X-C_1-N_2-X
 2  X-C_1-O_3-X
 3  X-C_2-N_2-X
 4  X-C_3-C_3-X
 5  X-C_R-C_3-X
 6  X-C_R-C_R-X
 7  X-C_R-N_R-X
 8  X-N_R-C_R-X
 9  X-O_3-C_2-X
10  X-O_3-C_R-X

Improper Type Labels

 1  X-C_2-X-X-nb==3
 2  X-C_R-X-X-nb==3
 3  X-C_3-X-X-nb!=3

Masses

 1   12.01100   #   C 
 2   12.01100   #   C 
 3   12.01100   #   C 
 4   12.01100   #   C 
 5   1.00800    #   H 
 6   14.00700   #   N 
 7   14.00700   #   N 
 8   14.00700   #   N 
 9   15.99900   #   O 

Pair Coeffs  # lj/cut/coul/long

 1        0.09510000      3.47299047  #   C 
 2        0.09510000      3.47299047  #   C 
 3        0.09510000      3.47299047  #   C 
 4        0.09510000      3.47299047  #   C 
 5        0.01520000      2.84642140  #   H 
 6        0.07740000      3.26256020  #   N 
 7        0.07740000      3.26256020  #   N 
 8        0.07740000      3.26256020  #   N 
 9        0.09570000      3.03315378  #   O 

Bond Coeffs  # harmonic

 1  harmonic     700.00000000      1.20700000
 2  harmonic    1050.00000000      1.14800000
 3  harmonic     350.00000000      1.25200000
 4  harmonic     350.00000000      1.32000000
 5  harmonic     700.00000000      1.27500000
 6  harmonic     700.00000000      1.21600000
 7  morse       82.69610000      1.60000000      1.46000000
 8  morse       82.69610000      1.60000000      1.53000000
 9  harmonic     350.00000000      1.35000000
10  harmonic     525.00000000      1.39000000
11  harmonic     525.00000000      1.34000000
12  harmonic     350.00000000      1.09000000
13  harmonic     350.00000000      1.02000000

Angle Coeffs  # harmonic

 1       50.00000000    180.00000000
 2       50.00000000    120.00000000
 3       50.00000000    109.47100000
 4       50.00000000    120.00000000
 5       50.00000000    120.00000000
 6       50.00000000    120.00000000
 7       50.00000000    104.51000000

Dihedral Coeffs  # harmonic

 1        0.00000000    -1     0
 2        0.00000000    -1     0
 3       22.50000000    -1     2
 4        1.00000000     1     3
 5        0.50000000    -1     6
 6       12.50000000    -1     2
 7       12.50000000    -1     2
 8       12.50000000    -1     2
 9        0.00000000     1     0
10        1.00000000     1     2

Improper Coeffs  # umbrella

 1       40.00000000      0.00000000
 2       40.00000000      0.00000000
 3        0.00000000      0.00000000

Atoms # full

 1  1  3   0.004762    1.145693750    -0.126840625    -1.079543750   0  0  0 
 2  1  4  -0.041144    0.094693750    -1.218540625    -0.962343750   0  0  0 
 3  1  4  -0.056585    0.305693750    -2.383740625    -0.325543750   0  0  0 
 4  1  4  -0.030742   -0.659206250    -3.312640625    -0.239943750   0  0  0 
 5  1  4   0.095710   -1.877506250    -3.124740625    -0.779543750   0  0  0 
 6  1  4  -0.030742   -2.083306250    -1.956040625    -1.413643750   0  0  0 
 7  1  4  -0.056585   -1.122206250    -1.024240625    -1.501843750   0  0  0 
 8  1  9  -0.233056   -2.857706250    -4.073840625    -0.687643750   0  0  0 
 9  1  1   0.226147   -3.635006250    -3.860840625     0.475856250   0  0  0 
10  1  6  -0.164608   -4.266406250    -3.677540625     1.431556250   0  0  0 
11  1  4  -0.041144    0.735593750     1.055759375    -0.219343750   0  0  0 
12  1  4  -0.056585    0.514893750     0.907859375     1.098356250   0  0  0 
13  1  4  -0.030742    0.154493750     1.951159375     1.860856250   0  0  0 
14  1  4   0.095710    0.002293750     3.185359375     1.345956250   0  0  0 
15  1  4  -0.030742    0.226693750     3.324059375     0.026156250   0  0  0 
16  1  4  -0.056585    0.587093750     2.285059375    -0.742643750   0  0  0 
17  1  9  -0.233056   -0.364806250     4.247059375     2.125956250   0  0  0 
18  1  1   0.226147    0.782793750     4.880959375     2.659056250   0  0  0 
19  1  6  -0.164608    1.729293750     5.394259375     3.090856250   0  0  0 
20  1  3  -0.055651    2.592593750    -0.535440625    -0.758043750   0  0  0 
21  1  5   0.041489    1.149693750     0.176159375    -2.157343750   0  0  0 
22  1  5   0.063637    1.276093750    -2.601640625     0.146256250   0  0  0 
23  1  5   0.066111   -0.449206250    -4.256540625     0.291656250   0  0  0 
24  1  5   0.066111   -3.068006250    -1.757340625    -1.869743750   0  0  0 
25  1  5   0.063637   -1.342506250    -0.079640625    -2.027343750   0  0  0 
26  1  5   0.063637    0.628793750    -0.083140625     1.567856250   0  0  0 
27  1  5   0.066111   -0.020106250     1.792859375     2.938756250   0  0  0 
28  1  5   0.066111    0.112793750     4.319259375    -0.436443750   0  0  0 
29  1  5   0.063637    0.761693750     2.452559375    -1.818243750   0  0  0 
30  1  5   0.024540    3.292093750     0.309059375    -0.957843750   0  0  0 
31  1  5   0.024540    2.730693750    -0.817940625     0.309556250   0  0  0 
32  1  5   0.024540    2.922293750    -1.390740625    -1.391643750   0  0  0 

Bonds

1  7  1  2 
2  7  1  11
3  8  1  20
4  12 21 1 
5  10 2  3 
6  10 2  7 
7  10 3  4 
8  13 22 3 
9  10 4  5 
10 13 23 4 
11 10 5  6 
12 9  5  8 
13 10 6  7 
14 13 24 6 
15 13 25 7 
16 3  9  8 
17 2  9  10
18 10 11 12
19 10 11 16
20 10 12 13
21 13 26 12
22 10 13 14
23 13 27 13
24 10 14 15
25 9  14 17
26 10 15 16
27 13 28 15
28 13 29 16
29 3  18 17
30 2  18 19
31 12 30 20
32 12 31 20
33 12 32 20

Angles

1  3  2  1  21
2  3  2  1  11
3  3  2  1  20
4  3  20 1  21
5  3  11 1  21
6  3  11 1  20
7  4  3  2  7 
8  4  1  2  7 
9  4  1  2  3 
10 4  2  3  22
11 4  4  3  22
12 4  2  3  4 
13 4  5  4  23
14 4  3  4  5 
15 4  3  4  23
16 4  4  5  6 
17 4  6  5  8 
18 4  4  5  8 
19 4  5  6  7 
20 4  7  6  24
21 4  5  6  24
22 4  2  7  25
23 4  2  7  6 
24 4  6  7  25
25 7  5  8  9 
26 1  8  9  10
27 4  1  11 16
28 4  12 11 16
29 4  1  11 12
30 4  11 12 13
31 4  13 12 26
32 4  11 12 26
33 4  12 13 14
34 4  12 13 27
35 4  14 13 27
36 4  13 14 17
37 4  15 14 17
38 4  13 14 15
39 4  16 15 28
40 4  14 15 16
41 4  14 15 28
42 4  11 16 29
43 4  15 16 29
44 4  11 16 15
45 7  14 17 18
46 1  17 18 19
47 3  1  20 32
48 3  30 20 31
49 3  1  20 31
50 3  30 20 32
51 3  31 20 32
52 3  1  20 30

Dihedrals

1  4  21 1  20 32
2  5  12 11 1  2 
3  4  11 1  20 32
4  4  2  1  20 30
5  4  21 1  20 31
6  4  11 1  20 31
7  4  2  1  20 32
8  4  21 1  20 30
9  4  11 1  20 30
10 5  16 11 1  2 
11 4  2  1  20 31
12 5  7  2  1  11
13 5  7  2  1  20
14 6  3  2  7  25
15 6  1  2  3  4 
16 5  3  2  1  21
17 6  1  2  3  22
18 6  3  2  7  6 
19 5  3  2  1  11
20 6  1  2  7  25
21 5  3  2  1  20
22 6  7  2  3  22
23 6  1  2  7  6 
24 5  7  2  1  21
25 6  4  3  2  7 
26 6  22 3  4  23
27 6  2  3  4  5 
28 6  2  3  4  23
29 6  5  4  3  22
30 6  3  4  5  6 
31 6  3  4  5  8 
32 6  8  5  6  24
33 10 9  8  5  4 
34 6  8  5  4  23
35 6  4  5  6  7 
36 6  4  5  6  24
37 10 9  8  5  6 
38 6  6  5  4  23
39 6  24 6  7  25
40 6  5  6  7  25
41 6  7  6  5  8 
42 6  2  7  6  5 
43 6  2  7  6  24
44 2  10 9  8  5 
45 6  12 11 16 29
46 5  16 11 1  20
47 6  16 11 12 26
48 6  1  11 16 15
49 6  1  11 12 26
50 5  12 11 1  21
51 6  12 11 16 15
52 6  1  11 16 29
53 6  1  11 12 13
54 5  16 11 1  21
55 5  12 11 1  20
56 6  13 12 11 16
57 6  26 12 13 27
58 6  11 12 13 27
59 6  11 12 13 14
60 6  12 13 14 15
61 6  14 13 12 26
62 6  12 13 14 17
63 6  17 14 15 28
64 10 18 17 14 15
65 6  17 14 13 27
66 6  13 14 15 16
67 6  13 14 15 28
68 10 18 17 14 13
69 6  15 14 13 27
70 6  16 15 14 17
71 6  28 15 16 29
72 6  14 15 16 29
73 6  11 16 15 28
74 6  11 16 15 14
75 2  19 18 17 14

Impropers

1  2  1  2  3  7 
2  2  2  3  4  22
3  2  3  4  5  23
4  2  4  5  6  8 
5  2  5  6  7  24
6  2  2  7  6  25
7  2  1  11 12 16
8  2  11 12 13 26
9  2  12 13 14 27
10 2  13 14 15 17
11 2  14 15 16 28
12 2  11 16 15 29
13 3  2  1  20 21
14 3  2  1  11 21
15 3  11 1  20 21
16 3  2  1  11 20
17 3  1  20 30 32
18 3  1  20 31 32
19 3  30 20 31 32
20 3  1  20 30 31
