HEADER,  L10.mol2  read w/ mol2SYBYL2lmp > atom_typing v1.4 / 2 May 2023 w/DREIDING atom-types > all2lmp: v1.7 / 2 May 2023  Class: d > bond_react_merge: v1.7 / 2 May 2023 datafile (filetag: data1)

32 atoms
33 bonds
52 angles
75 dihedrals
20 impropers

9 atom types
13 bond types
7 angle types
10 dihedral types
3 improper types

-4.766406250 3.792093750 xlo xhi
-4.756540625 5.894259375 ylo yhi
-2.657343750 3.590856250 zlo zhi

Masses

 1   12.01100  #  C_1  
 2   12.01100  #  C_2  
 3   12.01100  #  C_3  
 4   12.01100  #  C_R  
 5   1.00800   #  H_   
 6   14.00700  #  N_1  
 7   14.00700  #  N_2  
 8   14.00700  #  N_R  
 9   15.99900  #  O_3  

Pair Coeffs  # lj/cut/coul/long

 1        0.09510000      3.47299047 #  C_1  
 2        0.09510000      3.47299047 #  C_2  
 3        0.09510000      3.47299047 #  C_3  
 4        0.09510000      3.47299047 #  C_R  
 5        0.01520000      2.84642140 #  H_   
 6        0.07740000      3.26256020 #  N_1  
 7        0.07740000      3.26256020 #  N_2  
 8        0.07740000      3.26256020 #  N_R  
 9        0.09570000      3.03315378 #  O_3  

Bond Coeffs  # harmonic

 1      700.00000000      1.20700000 #  C_1        N_2   
 2     1050.00000000      1.14800000 #  C_1        N_1   
 3      350.00000000      1.25200000 #  C_1        O_3   
 4      350.00000000      1.32000000 #  C_2        O_3   
 5      700.00000000      1.27500000 #  C_2        N_2   
 6      700.00000000      1.21600000 #  C_2        N_1   
 7      350.00000000      1.46000000 #  C_3        C_R   
 8      350.00000000      1.53000000 #  C_3        C_3   
 9      350.00000000      1.35000000 #  C_R        O_3   
10      525.00000000      1.39000000 #  C_R        C_R   
11      525.00000000      1.34000000 #  C_R        N_R   
12      350.00000000      1.09000000 #  H_         C_3   
13      350.00000000      1.02000000 #  H_         C_R   

Angle Coeffs  # harmonic

 1       50.00000000    180.00000000 #  X         C_1          X   
 2       50.00000000    120.00000000 #  X         C_2          X   
 3       50.00000000    109.47100000 #  X         C_3          X   
 4       50.00000000    120.00000000 #  X         C_R          X   
 5       50.00000000    120.00000000 #  X         N_2          X   
 6       50.00000000    120.00000000 #  X         N_R          X   
 7       50.00000000    104.51000000 #  X         O_3          X   

Dihedral Coeffs  # harmonic

 1        0.00000000    -1     0 #  X         C_1       N_2          X   
 2        0.00000000    -1     0 #  X         C_1       O_3          X   
 3       22.50000000    -1     2 #  X         C_2       N_2          X   
 4        1.00000000     1     3 #  X         C_3       C_3          X   
 5        0.50000000    -1     6 #  X         C_R       C_3          X   
 6       12.50000000    -1     2 #  X         C_R       C_R          X   
 7       12.50000000    -1     2 #  X         C_R       N_R          X   
 8       12.50000000    -1     2 #  X         N_R       C_R          X   
 9        0.00000000     1     0 #  X         O_3       C_2          X   
10        1.00000000     1     2 #  X         O_3       C_R          X   

Improper Coeffs  # umbrella

 1       40.00000000      0.00000000 #  X         C_2        X         X       nb==3   
 2       40.00000000      0.00000000 #  X         C_R        X         X       nb==3   
 3        0.00000000      0.00000000 #  X         C_3        X         X       nb!=3   

Atoms # full

 1  1  3   0.004762    1.145693750    -0.126840625    -1.079543750   0  0  0  #  C_3/C
 2  1  4  -0.041144    0.094693750    -1.218540625    -0.962343750   0  0  0  #  C_R/C
 3  1  4  -0.056585    0.305693750    -2.383740625    -0.325543750   0  0  0  #  C_R/C
 4  1  4  -0.030742   -0.659206250    -3.312640625    -0.239943750   0  0  0  #  C_R/C
 5  1  4   0.095710   -1.877506250    -3.124740625    -0.779543750   0  0  0  #  C_R/C
 6  1  4  -0.030742   -2.083306250    -1.956040625    -1.413643750   0  0  0  #  C_R/C
 7  1  4  -0.056585   -1.122206250    -1.024240625    -1.501843750   0  0  0  #  C_R/C
 8  1  9  -0.233056   -2.857706250    -4.073840625    -0.687643750   0  0  0  #  O_3/0
 9  1  1   0.226147   -3.635006250    -3.860840625     0.475856250   0  0  0  #  C_1/C
10  1  6  -0.164608   -4.266406250    -3.677540625     1.431556250   0  0  0  #  N_1/N
11  1  4  -0.041144    0.735593750     1.055759375    -0.219343750   0  0  0  #  C_R/C
12  1  4  -0.056585    0.514893750     0.907859375     1.098356250   0  0  0  #  C_R/C
13  1  4  -0.030742    0.154493750     1.951159375     1.860856250   0  0  0  #  C_R/C
14  1  4   0.095710    0.002293750     3.185359375     1.345956250   0  0  0  #  C_R/C
15  1  4  -0.030742    0.226693750     3.324059375     0.026156250   0  0  0  #  C_R/C
16  1  4  -0.056585    0.587093750     2.285059375    -0.742643750   0  0  0  #  C_R/C
17  1  9  -0.233056   -0.364806250     4.247059375     2.125956250   0  0  0  #  O_3/0
18  1  1   0.226147    0.782793750     4.880959375     2.659056250   0  0  0  #  C_1/C
19  1  6  -0.164608    1.729293750     5.394259375     3.090856250   0  0  0  #  N_1/N
20  1  3  -0.055651    2.592593750    -0.535440625    -0.758043750   0  0  0  #  C_3/C
21  1  5   0.041489    1.149693750     0.176159375    -2.157343750   0  0  0  #  H_/H 
22  1  5   0.063637    1.276093750    -2.601640625     0.146256250   0  0  0  #  H_/H 
23  1  5   0.066111   -0.449206250    -4.256540625     0.291656250   0  0  0  #  H_/H 
24  1  5   0.066111   -3.068006250    -1.757340625    -1.869743750   0  0  0  #  H_/H 
25  1  5   0.063637   -1.342506250    -0.079640625    -2.027343750   0  0  0  #  H_/H 
26  1  5   0.063637    0.628793750    -0.083140625     1.567856250   0  0  0  #  H_/H 
27  1  5   0.066111   -0.020106250     1.792859375     2.938756250   0  0  0  #  H_/H 
28  1  5   0.066111    0.112793750     4.319259375    -0.436443750   0  0  0  #  H_/H 
29  1  5   0.063637    0.761693750     2.452559375    -1.818243750   0  0  0  #  H_/H 
30  1  5   0.024540    3.292093750     0.309059375    -0.957843750   0  0  0  #  H_/H 
31  1  5   0.024540    2.730693750    -0.817940625     0.309556250   0  0  0  #  H_/H 
32  1  5   0.024540    2.922293750    -1.390740625    -1.391643750   0  0  0  #  H_/H 

Bonds

1  7  1  2  #  C_3        C_R
2  7  1  11 #  C_3        C_R
3  8  1  20 #  C_3        C_3
4  12 21 1  #  H_         C_3
5  10 2  3  #  C_R        C_R
6  10 2  7  #  C_R        C_R
7  10 3  4  #  C_R        C_R
8  13 22 3  #  H_         C_R
9  10 4  5  #  C_R        C_R
10 13 23 4  #  H_         C_R
11 10 5  6  #  C_R        C_R
12 9  5  8  #  C_R        O_3
13 10 6  7  #  C_R        C_R
14 13 24 6  #  H_         C_R
15 13 25 7  #  H_         C_R
16 3  9  8  #  C_1        O_3
17 2  9  10 #  C_1        N_1
18 10 11 12 #  C_R        C_R
19 10 11 16 #  C_R        C_R
20 10 12 13 #  C_R        C_R
21 13 26 12 #  H_         C_R
22 10 13 14 #  C_R        C_R
23 13 27 13 #  H_         C_R
24 10 14 15 #  C_R        C_R
25 9  14 17 #  C_R        O_3
26 10 15 16 #  C_R        C_R
27 13 28 15 #  H_         C_R
28 13 29 16 #  H_         C_R
29 3  18 17 #  C_1        O_3
30 2  18 19 #  C_1        N_1
31 12 30 20 #  H_         C_3
32 12 31 20 #  H_         C_3
33 12 32 20 #  H_         C_3

Angles

1  3  2  1  21 #  X         C_3          X
2  3  2  1  11 #  X         C_3          X
3  3  2  1  20 #  X         C_3          X
4  3  20 1  21 #  X         C_3          X
5  3  11 1  21 #  X         C_3          X
6  3  11 1  20 #  X         C_3          X
7  4  3  2  7  #  X         C_R          X
8  4  1  2  7  #  X         C_R          X
9  4  1  2  3  #  X         C_R          X
10 4  2  3  22 #  X         C_R          X
11 4  4  3  22 #  X         C_R          X
12 4  2  3  4  #  X         C_R          X
13 4  5  4  23 #  X         C_R          X
14 4  3  4  5  #  X         C_R          X
15 4  3  4  23 #  X         C_R          X
16 4  4  5  6  #  X         C_R          X
17 4  6  5  8  #  X         C_R          X
18 4  4  5  8  #  X         C_R          X
19 4  5  6  7  #  X         C_R          X
20 4  7  6  24 #  X         C_R          X
21 4  5  6  24 #  X         C_R          X
22 4  2  7  25 #  X         C_R          X
23 4  2  7  6  #  X         C_R          X
24 4  6  7  25 #  X         C_R          X
25 7  5  8  9  #  X         O_3          X
26 1  8  9  10 #  X         C_1          X
27 4  1  11 16 #  X         C_R          X
28 4  12 11 16 #  X         C_R          X
29 4  1  11 12 #  X         C_R          X
30 4  11 12 13 #  X         C_R          X
31 4  13 12 26 #  X         C_R          X
32 4  11 12 26 #  X         C_R          X
33 4  12 13 14 #  X         C_R          X
34 4  12 13 27 #  X         C_R          X
35 4  14 13 27 #  X         C_R          X
36 4  13 14 17 #  X         C_R          X
37 4  15 14 17 #  X         C_R          X
38 4  13 14 15 #  X         C_R          X
39 4  16 15 28 #  X         C_R          X
40 4  14 15 16 #  X         C_R          X
41 4  14 15 28 #  X         C_R          X
42 4  11 16 29 #  X         C_R          X
43 4  15 16 29 #  X         C_R          X
44 4  11 16 15 #  X         C_R          X
45 7  14 17 18 #  X         O_3          X
46 1  17 18 19 #  X         C_1          X
47 3  1  20 32 #  X         C_3          X
48 3  30 20 31 #  X         C_3          X
49 3  1  20 31 #  X         C_3          X
50 3  30 20 32 #  X         C_3          X
51 3  31 20 32 #  X         C_3          X
52 3  1  20 30 #  X         C_3          X

Dihedrals

1  4  21 1  20 32 #  X         C_3       C_3          X
2  5  12 11 1  2  #  X         C_R       C_3          X
3  4  11 1  20 32 #  X         C_3       C_3          X
4  4  2  1  20 30 #  X         C_3       C_3          X
5  4  21 1  20 31 #  X         C_3       C_3          X
6  4  11 1  20 31 #  X         C_3       C_3          X
7  4  2  1  20 32 #  X         C_3       C_3          X
8  4  21 1  20 30 #  X         C_3       C_3          X
9  4  11 1  20 30 #  X         C_3       C_3          X
10 5  16 11 1  2  #  X         C_R       C_3          X
11 4  2  1  20 31 #  X         C_3       C_3          X
12 5  7  2  1  11 #  X         C_R       C_3          X
13 5  7  2  1  20 #  X         C_R       C_3          X
14 6  3  2  7  25 #  X         C_R       C_R          X
15 6  1  2  3  4  #  X         C_R       C_R          X
16 5  3  2  1  21 #  X         C_R       C_3          X
17 6  1  2  3  22 #  X         C_R       C_R          X
18 6  3  2  7  6  #  X         C_R       C_R          X
19 5  3  2  1  11 #  X         C_R       C_3          X
20 6  1  2  7  25 #  X         C_R       C_R          X
21 5  3  2  1  20 #  X         C_R       C_3          X
22 6  7  2  3  22 #  X         C_R       C_R          X
23 6  1  2  7  6  #  X         C_R       C_R          X
24 5  7  2  1  21 #  X         C_R       C_3          X
25 6  4  3  2  7  #  X         C_R       C_R          X
26 6  22 3  4  23 #  X         C_R       C_R          X
27 6  2  3  4  5  #  X         C_R       C_R          X
28 6  2  3  4  23 #  X         C_R       C_R          X
29 6  5  4  3  22 #  X         C_R       C_R          X
30 6  3  4  5  6  #  X         C_R       C_R          X
31 6  3  4  5  8  #  X         C_R       C_R          X
32 6  8  5  6  24 #  X         C_R       C_R          X
33 10 9  8  5  4  #  X         O_3       C_R          X
34 6  8  5  4  23 #  X         C_R       C_R          X
35 6  4  5  6  7  #  X         C_R       C_R          X
36 6  4  5  6  24 #  X         C_R       C_R          X
37 10 9  8  5  6  #  X         O_3       C_R          X
38 6  6  5  4  23 #  X         C_R       C_R          X
39 6  24 6  7  25 #  X         C_R       C_R          X
40 6  5  6  7  25 #  X         C_R       C_R          X
41 6  7  6  5  8  #  X         C_R       C_R          X
42 6  2  7  6  5  #  X         C_R       C_R          X
43 6  2  7  6  24 #  X         C_R       C_R          X
44 2  10 9  8  5  #  X         C_1       O_3          X
45 6  12 11 16 29 #  X         C_R       C_R          X
46 5  16 11 1  20 #  X         C_R       C_3          X
47 6  16 11 12 26 #  X         C_R       C_R          X
48 6  1  11 16 15 #  X         C_R       C_R          X
49 6  1  11 12 26 #  X         C_R       C_R          X
50 5  12 11 1  21 #  X         C_R       C_3          X
51 6  12 11 16 15 #  X         C_R       C_R          X
52 6  1  11 16 29 #  X         C_R       C_R          X
53 6  1  11 12 13 #  X         C_R       C_R          X
54 5  16 11 1  21 #  X         C_R       C_3          X
55 5  12 11 1  20 #  X         C_R       C_3          X
56 6  13 12 11 16 #  X         C_R       C_R          X
57 6  26 12 13 27 #  X         C_R       C_R          X
58 6  11 12 13 27 #  X         C_R       C_R          X
59 6  11 12 13 14 #  X         C_R       C_R          X
60 6  12 13 14 15 #  X         C_R       C_R          X
61 6  14 13 12 26 #  X         C_R       C_R          X
62 6  12 13 14 17 #  X         C_R       C_R          X
63 6  17 14 15 28 #  X         C_R       C_R          X
64 10 18 17 14 15 #  X         O_3       C_R          X
65 6  17 14 13 27 #  X         C_R       C_R          X
66 6  13 14 15 16 #  X         C_R       C_R          X
67 6  13 14 15 28 #  X         C_R       C_R          X
68 10 18 17 14 13 #  X         O_3       C_R          X
69 6  15 14 13 27 #  X         C_R       C_R          X
70 6  16 15 14 17 #  X         C_R       C_R          X
71 6  28 15 16 29 #  X         C_R       C_R          X
72 6  14 15 16 29 #  X         C_R       C_R          X
73 6  11 16 15 28 #  X         C_R       C_R          X
74 6  11 16 15 14 #  X         C_R       C_R          X
75 2  19 18 17 14 #  X         C_1       O_3          X

Impropers

1  2  1  2  3  7  #  X         C_R        X         X       nb==3
2  2  2  3  4  22 #  X         C_R        X         X       nb==3
3  2  3  4  5  23 #  X         C_R        X         X       nb==3
4  2  4  5  6  8  #  X         C_R        X         X       nb==3
5  2  5  6  7  24 #  X         C_R        X         X       nb==3
6  2  2  7  6  25 #  X         C_R        X         X       nb==3
7  2  1  11 12 16 #  X         C_R        X         X       nb==3
8  2  11 12 13 26 #  X         C_R        X         X       nb==3
9  2  12 13 14 27 #  X         C_R        X         X       nb==3
10 2  13 14 15 17 #  X         C_R        X         X       nb==3
11 2  14 15 16 28 #  X         C_R        X         X       nb==3
12 2  11 16 15 29 #  X         C_R        X         X       nb==3
13 3  2  1  20 21 #  X         C_3        X         X       nb!=3
14 3  2  1  11 21 #  X         C_3        X         X       nb!=3
15 3  11 1  20 21 #  X         C_3        X         X       nb!=3
16 3  2  1  11 20 #  X         C_3        X         X       nb!=3
17 3  1  20 30 32 #  X         C_3        X         X       nb!=3
18 3  1  20 31 32 #  X         C_3        X         X       nb!=3
19 3  30 20 31 32 #  X         C_3        X         X       nb!=3
20 3  1  20 30 31 #  X         C_3        X         X       nb!=3
