HEADER,  SWCNT_dia_2nm.mdf.mdf SWCNT_dia_2nm.car.car  read w/ msi2lmp > all2lmp: v1.9 / 31 July 2023  Class: 2 > auto_morse_bond version: v1.5 / 31 July 2023

3600 atoms
4200 bonds
12000 angles
28800 dihedrals
12000 impropers

2 atom types
2 bond types
3 angle types
3 dihedral types
3 improper types

-25.000000000 25.000000000 xlo xhi
-25.000000000 25.000000000 ylo yhi
-24.595000000 24.595000000 zlo zhi

Masses

 1   10.01115   #   C 
 2   1.00000    #   H 

Pair Coeffs  # lj/class2/coul/long

 1        0.06200000      3.93200000  #   C 
 2        0.00001000      0.00001000  #   H 

Bond Coeffs  # class2

 1  morse      124.00000000      2.40000000      1.42000000
 2  class2       0.65000000    250.00000000      0.00000000      0.00000000

Angle Coeffs  # class2

 1      120.00000000     90.00000000      0.00000000      0.00000000
 2       90.00000000     50.00000000      0.00000000      0.00000000
 3      180.00000000     50.00000000      0.00000000      0.00000000

Dihedral Coeffs  # class2

 1        0.00000000      0.00000000      0.00000000      0.00000000      0.00000000      0.00000000
 2        0.00000000      0.00000000      0.00000000      0.00000000      0.00000000      0.00000000
 3        0.00000000      0.00000000      0.00000000      0.00000000      0.00000000      0.00000000

Improper Coeffs  # class2

 1        0.00000000      0.00000000
 2        0.00000000      0.00000000
 3        0.00000000      0.00000000

BondBond Coeffs

 1        0.00000000      1.42000000      1.42000000 # 
 2        0.00000000      0.65000000      1.42000000 # 
 3        0.00000000      0.65000000      0.65000000 # 

BondAngle Coeffs

 1        0.00000000      0.00000000      1.42000000      1.42000000 # 
 2        0.00000000      0.00000000      0.65000000      1.42000000 # 
 3        0.00000000      0.00000000      0.65000000      0.65000000 # 

AngleAngleTorsion Coeffs

 1        0.00000000    120.00000000    120.00000000
 2        0.00000000    120.00000000     90.00000000
 3        0.00000000     90.00000000     90.00000000

EndBondTorsion Coeffs

 1        0.00000000      0.00000000      0.00000000      0.00000000      0.00000000      0.00000000      1.42000000      1.42000000 # 
 2        0.00000000      0.00000000      0.00000000      0.00000000      0.00000000      0.00000000      1.42000000      0.65000000 # 
 3        0.00000000      0.00000000      0.00000000      0.00000000      0.00000000      0.00000000      0.65000000      0.65000000 # 

MiddleBondTorsion Coeffs

 1        0.00000000      0.00000000      0.00000000      1.42000000 # 
 2        0.00000000      0.00000000      0.00000000      1.42000000 # 
 3        0.00000000      0.00000000      0.00000000      1.42000000 # 

BondBond13 Coeffs

 1        0.00000000      1.42000000      1.42000000 # 
 2        0.00000000      1.42000000      0.65000000 # 
 3        0.00000000      0.65000000      0.65000000 # 

AngleTorsion Coeffs

 1        0.00000000      0.00000000      0.00000000      0.00000000      0.00000000      0.00000000    120.00000000    120.00000000
 2        0.00000000      0.00000000      0.00000000      0.00000000      0.00000000      0.00000000    120.00000000     90.00000000
 3        0.00000000      0.00000000      0.00000000      0.00000000      0.00000000      0.00000000     90.00000000     90.00000000

AngleAngle Coeffs

 1        0.00000000      0.00000000      0.00000000    120.00000000    120.00000000    120.00000000
 2        0.00000000      0.00000000      0.00000000    120.00000000     90.00000000     90.00000000
 3        0.00000000      0.00000000      0.00000000     90.00000000    180.00000000     90.00000000

Atoms # full

 1  1  1   0.300000   10.027467446     1.798030393    -23.980124957  0  0  0 
 2  1  1   0.300000    9.679563626     3.176327807    -23.980124924  0  0  0 
 3  1  1   0.300000    9.434511266     3.843566490    -22.750374902  0  0  0 
 4  1  1   0.300000   10.128437975     1.094423215    -22.750374936  0  0  0 
 5  1  1   0.300000    8.429221597     5.721120150    -23.980124901  0  0  0 
 6  1  1   0.300000    8.807645717     5.119411486    -22.750374906  0  0  0 
 7  1  1   0.300000    5.373487251     8.654976199    -23.980124936  0  0  0 
 8  1  1   0.300000    7.550791507     6.838752221    -23.980124926  0  0  0 
 9  1  1   0.300000    7.055534650     7.348633362    -22.750374906  0  0  0 
10  1  1   0.300000    4.116419724     9.318694568    -23.980124969  0  0  0 
11  1  1   0.300000    3.456592796     9.583055234    -22.750374928  0  0  0 
12  1  1   0.300000    5.963931747     8.259206784    -22.750374919  0  0  0 
13  1  1   0.300000    1.388628665    10.092308932    -23.980125010  0  0  0 
14  1  1   0.300000    2.089000449     9.970910859    -22.750374947  0  0  0 
15  1  1   0.300000   -2.836336651     9.784590031    -23.980125013  0  0  0 
16  1  1   0.300000   -0.029718218    10.187350632    -23.980125013  0  0  0 
17  1  1   0.300000   -0.740025272    10.160480395    -22.750374985  0  0  0 
18  1  1   0.300000   -4.170717908     9.294521165    -23.980125024  0  0  0 
19  1  1   0.300000   -4.808686566     8.981066000    -22.750375040  0  0  0 
20  1  1   0.300000   -2.147138148     9.958554264    -22.750375017  0  0  0 
21  1  1   0.300000   -6.570873723     7.785026112    -23.980125036  0  0  0 
22  1  1   0.300000   -6.012017279     8.224272749    -22.750375064  0  0  0 
23  1  1   0.300000   -9.169246503     4.439359981    -23.980125062  0  0  0 
24  1  1   0.300000   -7.590562440     6.794583922    -23.980125073  0  0  0 
25  1  1   0.300000   -8.045881966     6.248743048    -22.750375067  0  0  0 
26  1  1   0.300000   -9.697929347     3.119801254    -23.980125083  0  0  0 
27  1  1   0.300000   -9.891870986     2.435955681    -22.750375108  0  0  0 
28  1  1   0.300000   -8.837363500     5.067939170    -22.750375110  0  0  0 
29  1  1   0.300000   -10.182173390    0.326088524    -23.980125110  0  0  0 
30  1  1   0.300000   -10.134649284    1.035313147    -22.750375104  0  0  0 
31  1  1   0.300000   -9.434510309    -3.843566481    -23.980125048  0  0  0 
32  1  1   0.300000   -10.128436491   -1.094423050    -23.980125103  0  0  0 
33  1  1   0.300000   -10.027466003   -1.798030238    -22.750375080  0  0  0 
34  1  1   0.300000   -8.807645255    -5.119411708    -23.980125045  0  0  0 
35  1  1   0.300000   -8.429221354    -5.721120499    -22.750375035  0  0  0 
36  1  1   0.300000   -9.679562463    -3.176327718    -22.750375071  0  0  0 
37  1  1   0.300000   -7.055534891    -7.348634110    -23.980125013  0  0  0 
38  1  1   0.300000   -7.550791616    -6.838752840    -22.750375025  0  0  0 
39  1  1   0.300000   -3.456593307    -9.583056379    -23.980124991  0  0  0 
40  1  1   0.300000   -5.963932167    -8.259207757    -23.980125023  0  0  0 
41  1  1   0.300000   -5.373487721    -8.654977250    -22.750374996  0  0  0 
42  1  1   0.300000   -2.089000921    -9.970911904    -23.980124976  0  0  0 
43  1  1   0.300000   -1.388629112    -10.092309865   -22.750374981  0  0  0 
44  1  1   0.300000   -4.116420236    -9.318695710    -22.750374994  0  0  0 
45  1  1   0.300000    0.740024870    -10.160480763   -23.980124984  0  0  0 
46  1  1   0.300000    0.029717809    -10.187351206   -22.750374980  0  0  0 
47  1  1   0.300000    4.808685804    -8.981065059    -23.980124998  0  0  0 
48  1  1   0.300000    2.147137682    -9.958554164    -23.980124988  0  0  0 
49  1  1   0.300000    2.836336137    -9.784589702    -22.750374968  0  0  0 
50  1  1   0.300000    6.012016370    -8.224271582    -23.980124950  0  0  0 
51  1  1   0.300000    6.570872798    -7.785024909    -22.750374975  0  0  0 
52  1  1   0.300000    4.170717238    -9.294520396    -22.750374941  0  0  0 
53  1  1   0.300000    8.045881263    -6.248742027    -23.980124990  0  0  0 
54  1  1   0.300000    7.590561602    -6.794582803    -22.750374980  0  0  0 
55  1  1   0.300000    9.891871904    -2.435955454    -23.980124972  0  0  0 
56  1  1   0.300000    8.837363249    -5.067938461    -23.980124980  0  0  0 
57  1  1   0.300000    9.169246541    -4.439359425    -22.750374990  0  0  0 
58  1  1   0.300000   10.134650548    -1.035312984    -23.980124998  0  0  0 
59  1  1   0.300000   10.182174765    -0.326088370    -22.750374953  0  0  0 
60  1  1   0.300000    9.697930019    -3.119800944    -22.750374989  0  0  0 
61  1  2  -0.150000   -9.451374513     5.449740971    -22.750375120  0  0  0 
62  1  2  -0.150000   -8.632361606     6.671618638    -22.750374965  0  0  0 
63  1  2  -0.150000   -8.111774782     7.295702498    -23.980125030  0  0  0 
64  1  2  -0.150000   -7.070811190     6.294516360    -23.980125037  0  0  0 
65  1  2  -0.150000   -7.460698381     5.827116308    -22.750375042  0  0  0 
66  1  2  -0.150000   -8.225000156     4.686861664    -22.750375243  0  0  0 
67  1  2  -0.150000   -7.056616568     8.320596860    -23.980124837  0  0  0 
68  1  2  -0.150000   -6.086138952     7.250946404    -23.980125116  0  0  0 
69  1  2  -0.150000   -6.417651385     8.822806887    -22.750375003  0  0  0 
70  1  2  -0.150000   -5.607593813     7.627070443    -22.750375211  0  0  0 
71  1  2  -0.150000   -5.172463228     9.605924924    -22.750375103  0  0  0 
72  1  2  -0.150000   -4.445585926     8.357875136    -22.750375001  0  0  0 
73  1  2  -0.150000   -4.443045607     9.964311997    -23.980124979  0  0  0 
74  1  2  -0.150000   -3.899297477     8.626284768    -23.980125020  0  0  0 
75  1  2  -0.150000   -3.062248404    10.471427721    -23.980125120  0  0  0 
76  1  2  -0.150000   -2.610739354     9.099524493    -23.980124920  0  0  0 
77  1  2  -0.150000   -2.274257452    10.670328677    -22.750375264  0  0  0 
78  1  2  -0.150000   -2.020583103     9.248488947    -22.750374840  0  0  0 
79  1  2  -0.150000   -0.818198688    10.879278729    -22.750374943  0  0  0 
80  1  2  -0.150000   -0.661790995     9.443480863    -22.750374967  0  0  0 
81  1  2  -0.150000   -0.006073399    10.910000657    -23.980125002  0  0  0 
82  1  2  -0.150000   -0.053559605     9.466489673    -23.980125143  0  0  0 
83  1  2  -0.150000    1.461610123    10.811652968    -23.980124952  0  0  0 
84  1  2  -0.150000    1.316080747     9.374711735    -23.980125209  0  0  0 
85  1  2  -0.150000    2.262375906    10.672853223    -22.750374865  0  0  0 
86  1  2  -0.150000    1.915804657     9.270759336    -22.750374871  0  0  0 
87  1  2  -0.150000    3.677539433    10.271506193    -22.750374964  0  0  0 
88  1  2  -0.150000    3.236433428     8.896222803    -22.750374742  0  0  0 
89  1  2  -0.150000    4.431948485     9.969251050    -23.980125082  0  0  0 
90  1  2  -0.150000    3.801439049     8.669852437    -23.980125025  0  0  0 
91  1  2  -0.150000    5.732742599     9.282445503    -23.980124949  0  0  0 
92  1  2  -0.150000    5.015338461     8.028926371    -23.980124984  0  0  0 
93  1  2  -0.150000    6.407823674     8.829944990    -22.750374893  0  0  0 
94  1  2  -0.150000    5.520932364     7.690031509    -22.750374945  0  0  0 
95  1  2  -0.150000    7.537397534     7.887697647    -22.750374772  0  0  0 
96  1  2  -0.150000    6.575049257     6.810727479    -22.750374967  0  0  0 
97  1  2  -0.150000    8.103646402     7.304728200    -23.980125176  0  0  0 
98  1  2  -0.150000    6.999134600     6.374119456    -23.980124766  0  0  0 
99  1  2  -0.150000    9.012632325     6.148219755    -23.980124892  0  0  0 
100 1  2  -0.150000    7.847399102     5.294867257    -23.980124868  0  0  0 
101 1  2  -0.150000    9.445301240     5.460259811    -22.750374714  0  0  0 
102 1  2  -0.150000    8.171441272     4.779627949    -22.750375150  0  0  0 
103 1  2  -0.150000   10.093972064     4.140035039    -22.750375012  0  0  0 
104 1  2  -0.150000    8.776780029     3.547595939    -22.750374699  0  0  0 
105 1  2  -0.150000   10.374151214     3.377151689    -23.980125028  0  0  0 
106 1  2  -0.150000    8.986616786     2.976243740    -23.980124870  0  0  0 
107 1  2  -0.150000   10.734156743     1.950910695    -23.980124926  0  0  0 
108 1  2  -0.150000    9.322573461     1.645277581    -23.980125065  0  0  0 
109 1  2  -0.150000   10.849600802     1.146445573    -22.750374956  0  0  0 
110 1  2  -0.150000    9.409033863     1.042783380    -22.750374894  0  0  0 
111 1  2  -0.150000   10.905206802    -0.323478041    -22.750374848  0  0  0 
112 1  2  -0.150000    9.460925315    -0.328947312    -22.750374917  0  0  0 
113 1  2  -0.150000   10.850870280    -1.134365716    -23.980124917  0  0  0 
114 1  2  -0.150000    9.420230637    -0.936251712    -23.980125212  0  0  0 
115 1  2  -0.150000   10.599646662    -2.583729037    -23.980124950  0  0  0 
116 1  2  -0.150000    9.185789104    -2.288795605    -23.980124932  0  0  0 
117 1  2  -0.150000   10.377904363    -3.365599697    -22.750375125  0  0  0 
118 1  2  -0.150000    9.019717928    -2.874368067    -22.750374916  0  0  0 
119 1  2  -0.150000    9.830830828    -4.731058517    -22.750374975  0  0  0 
120 1  2  -0.150000    8.509189635    -4.148612438    -22.750375021  0  0  0 
121 1  2  -0.150000    9.451374105    -5.449740505    -23.980125003  0  0  0 
122 1  2  -0.150000    8.225000066    -4.686860694    -23.980124951  0  0  0 
123 1  2  -0.150000    8.632360744    -6.671617833    -23.980124996  0  0  0 
124 1  2  -0.150000    7.460697814    -5.827115106    -23.980124998  0  0  0 
125 1  2  -0.150000    8.111773873    -7.295701445    -22.750374903  0  0  0 
126 1  2  -0.150000    7.070810415    -6.294515175    -22.750375029  0  0  0 
127 1  2  -0.150000    7.056615614    -8.320595672    -22.750375043  0  0  0 
128 1  2  -0.150000    6.086138053    -7.250945181    -22.750375009  0  0  0 
129 1  2  -0.150000    6.417650555    -8.822805653    -23.980124928  0  0  0 
130 1  2  -0.150000    5.607592817    -7.627069342    -23.980124847  0  0  0 
131 1  2  -0.150000    5.172462612    -9.605923883    -23.980125129  0  0  0 
132 1  2  -0.150000    4.445585036    -8.357874277    -23.980125063  0  0  0 
133 1  2  -0.150000    4.443045152    -9.964311133    -22.750374862  0  0  0 
134 1  2  -0.150000    3.899296596    -8.626284092    -22.750374845  0  0  0 
135 1  2  -0.150000    3.062248103    -10.471427315   -22.750374996  0  0  0 
136 1  2  -0.150000    2.610738594    -9.099524246    -22.750374874  0  0  0 
137 1  2  -0.150000    2.274257219    -10.670328532   -23.980124914  0  0  0 
138 1  2  -0.150000    2.020582415    -9.248488897    -23.980125137  0  0  0 
139 1  2  -0.150000    0.818198482    -10.879279076   -23.980124903  0  0  0 
140 1  2  -0.150000    0.661790330    -9.443481266    -23.980125067  0  0  0 
141 1  2  -0.150000    0.006073197    -10.910001232   -22.750375123  0  0  0 
142 1  2  -0.150000    0.053559019    -9.466490248    -22.750374811  0  0  0 
143 1  2  -0.150000   -1.461610406    -10.811653914   -22.750374921  0  0  0 
144 1  2  -0.150000   -1.316081351    -9.374712657    -22.750375074  0  0  0 
145 1  2  -0.150000   -2.262376317    -10.672854291   -23.980124920  0  0  0 
146 1  2  -0.150000   -1.915805201    -9.270760368    -23.980124994  0  0  0 
147 1  2  -0.150000   -3.677539897    -10.271507355   -23.980125071  0  0  0 
148 1  2  -0.150000   -3.236433963    -8.896223935    -23.980124873  0  0  0 
149 1  2  -0.150000   -4.431949030    -9.969252186    -22.750375007  0  0  0 
150 1  2  -0.150000   -3.801439524    -8.669853590    -22.750374996  0  0  0 
151 1  2  -0.150000   -5.732743130    -9.282446530    -22.750375059  0  0  0 
152 1  2  -0.150000   -5.015338871    -8.028927454    -22.750374854  0  0  0 
153 1  2  -0.150000   -6.407824184    -8.829945900    -23.980125042  0  0  0 
154 1  2  -0.150000   -5.520932662    -7.690032582    -23.980125082  0  0  0 
155 1  2  -0.150000   -7.537397902    -7.887698280    -23.980124820  0  0  0 
156 1  2  -0.150000   -6.575049382    -6.810728333    -23.980125185  0  0  0 
157 1  2  -0.150000   -8.103646650    -7.304728649    -22.750375005  0  0  0 
158 1  2  -0.150000   -6.999134579    -6.374120238    -22.750375053  0  0  0 
159 1  2  -0.150000   -9.012632224    -6.148219900    -22.750375161  0  0  0 
160 1  2  -0.150000   -7.847398726    -5.294867788    -22.750374875  0  0  0 
161 1  2  -0.150000   -9.445300890    -5.460259816    -23.980125056  0  0  0 
162 1  2  -0.150000   -8.171440671    -4.779628439    -23.980125044  0  0  0 
163 1  2  -0.150000   -10.093971219   -4.140034770    -23.980124944  0  0  0 
164 1  2  -0.150000   -8.776778973    -3.547596156    -23.980125096  0  0  0 
165 1  2  -0.150000   -10.374150092   -3.377151434    -22.750375044  0  0  0 
166 1  2  -0.150000   -8.986615587    -2.976243824    -22.750375135  0  0  0 
167 1  2  -0.150000   -10.734155324   -1.950910403    -22.750375099  0  0  0 
168 1  2  -0.150000   -9.322572001    -1.645277524    -22.750375010  0  0  0 
169 1  2  -0.150000   -10.849599307   -1.146445443    -23.980125105  0  0  0 
170 1  2  -0.150000   -10.905205426    0.323478075    -23.980125284  0  0  0 
171 1  2  -0.150000   -10.850869032    1.134365725    -22.750375205  0  0  0 
172 1  2  -0.150000   -10.599645785    2.583729075    -22.750375026  0  0  0 
173 1  2  -0.150000   -10.377903804    3.365599693    -23.980124988  0  0  0 
174 1  2  -0.150000   -9.409032386    -1.042783198    -23.980125147  0  0  0 
175 1  2  -0.150000   -9.460923939     0.328947509    -23.980124997  0  0  0 
176 1  2  -0.150000   -9.420229351     0.936252034    -22.750375050  0  0  0 
177 1  2  -0.150000   -9.185788141     2.288796047    -22.750375289  0  0  0 
178 1  2  -0.150000   -9.019717149     2.874368665    -23.980125125  0  0  0 
179 1  2  -0.150000   -9.830830927     4.731058778    -23.980125144  0  0  0 
180 1  2  -0.150000   -8.509189454     4.148613314    -23.980124822  0  0  0 
181 1  1   0.300000   10.027467446     1.798030393    -21.520624957  0  0  0 
182 1  1   0.300000    9.679563626     3.176327807    -21.520624924  0  0  0 
183 1  1   0.300000    9.434511266     3.843566490    -20.290874902  0  0  0 
184 1  1   0.300000   10.128437975     1.094423215    -20.290874936  0  0  0 
185 1  1   0.300000    8.429221597     5.721120150    -21.520624901  0  0  0 
186 1  1   0.300000    8.807645717     5.119411486    -20.290874906  0  0  0 
187 1  1   0.300000    5.373487251     8.654976199    -21.520624936  0  0  0 
188 1  1   0.300000    7.550791507     6.838752221    -21.520624926  0  0  0 
189 1  1   0.300000    7.055534650     7.348633362    -20.290874906  0  0  0 
190 1  1   0.300000    4.116419724     9.318694568    -21.520624969  0  0  0 
191 1  1   0.300000    3.456592796     9.583055234    -20.290874928  0  0  0 
192 1  1   0.300000    5.963931747     8.259206784    -20.290874919  0  0  0 
193 1  1   0.300000    1.388628665    10.092308932    -21.520625010  0  0  0 
194 1  1   0.300000    2.089000449     9.970910859    -20.290874947  0  0  0 
195 1  1   0.300000   -2.836336651     9.784590031    -21.520625013  0  0  0 
196 1  1   0.300000   -0.029718218    10.187350632    -21.520625013  0  0  0 
197 1  1   0.300000   -0.740025272    10.160480395    -20.290874985  0  0  0 
198 1  1   0.300000   -4.170717908     9.294521165    -21.520625024  0  0  0 
199 1  1   0.300000   -4.808686566     8.981066000    -20.290875040  0  0  0 
200 1  1   0.300000   -2.147138148     9.958554264    -20.290875017  0  0  0 
201 1  1   0.300000   -6.570873723     7.785026112    -21.520625036  0  0  0 
202 1  1   0.300000   -6.012017279     8.224272749    -20.290875064  0  0  0 
203 1  1   0.300000   -9.169246503     4.439359981    -21.520625062  0  0  0 
204 1  1   0.300000   -7.590562440     6.794583922    -21.520625073  0  0  0 
205 1  1   0.300000   -8.045881966     6.248743048    -20.290875067  0  0  0 
206 1  1   0.300000   -9.697929347     3.119801254    -21.520625083  0  0  0 
207 1  1   0.300000   -9.891870986     2.435955681    -20.290875108  0  0  0 
208 1  1   0.300000   -8.837363500     5.067939170    -20.290875110  0  0  0 
209 1  1   0.300000   -10.182173390    0.326088524    -21.520625110  0  0  0 
210 1  1   0.300000   -10.134649284    1.035313147    -20.290875104  0  0  0 
211 1  1   0.300000   -9.434510309    -3.843566481    -21.520625048  0  0  0 
212 1  1   0.300000   -10.128436491   -1.094423050    -21.520625103  0  0  0 
213 1  1   0.300000   -10.027466003   -1.798030238    -20.290875080  0  0  0 
214 1  1   0.300000   -8.807645255    -5.119411708    -21.520625045  0  0  0 
215 1  1   0.300000   -8.429221354    -5.721120499    -20.290875035  0  0  0 
216 1  1   0.300000   -9.679562463    -3.176327718    -20.290875071  0  0  0 
217 1  1   0.300000   -7.055534891    -7.348634110    -21.520625013  0  0  0 
218 1  1   0.300000   -7.550791616    -6.838752840    -20.290875025  0  0  0 
219 1  1   0.300000   -3.456593307    -9.583056379    -21.520624991  0  0  0 
220 1  1   0.300000   -5.963932167    -8.259207757    -21.520625023  0  0  0 
221 1  1   0.300000   -5.373487721    -8.654977250    -20.290874996  0  0  0 
222 1  1   0.300000   -2.089000921    -9.970911904    -21.520624976  0  0  0 
223 1  1   0.300000   -1.388629112    -10.092309865   -20.290874981  0  0  0 
224 1  1   0.300000   -4.116420236    -9.318695710    -20.290874994  0  0  0 
225 1  1   0.300000    0.740024870    -10.160480763   -21.520624984  0  0  0 
226 1  1   0.300000    0.029717809    -10.187351206   -20.290874980  0  0  0 
227 1  1   0.300000    4.808685804    -8.981065059    -21.520624998  0  0  0 
228 1  1   0.300000    2.147137682    -9.958554164    -21.520624988  0  0  0 
229 1  1   0.300000    2.836336137    -9.784589702    -20.290874968  0  0  0 
230 1  1   0.300000    6.012016370    -8.224271582    -21.520624950  0  0  0 
231 1  1   0.300000    6.570872798    -7.785024909    -20.290874975  0  0  0 
232 1  1   0.300000    4.170717238    -9.294520396    -20.290874941  0  0  0 
233 1  1   0.300000    8.045881263    -6.248742027    -21.520624990  0  0  0 
234 1  1   0.300000    7.590561602    -6.794582803    -20.290874980  0  0  0 
235 1  1   0.300000    9.891871904    -2.435955454    -21.520624972  0  0  0 
236 1  1   0.300000    8.837363249    -5.067938461    -21.520624980  0  0  0 
237 1  1   0.300000    9.169246541    -4.439359425    -20.290874990  0  0  0 
238 1  1   0.300000   10.134650548    -1.035312984    -21.520624998  0  0  0 
239 1  1   0.300000   10.182174765    -0.326088370    -20.290874953  0  0  0 
240 1  1   0.300000    9.697930019    -3.119800944    -20.290874989  0  0  0 
241 1  2  -0.150000   -9.451374513     5.449740971    -20.290875120  0  0  0 
242 1  2  -0.150000   -8.632361606     6.671618638    -20.290874965  0  0  0 
243 1  2  -0.150000   -8.111774782     7.295702498    -21.520625030  0  0  0 
244 1  2  -0.150000   -7.070811190     6.294516360    -21.520625037  0  0  0 
245 1  2  -0.150000   -7.460698381     5.827116308    -20.290875042  0  0  0 
246 1  2  -0.150000   -8.225000156     4.686861664    -20.290875243  0  0  0 
247 1  2  -0.150000   -7.056616568     8.320596860    -21.520624837  0  0  0 
248 1  2  -0.150000   -6.086138952     7.250946404    -21.520625116  0  0  0 
249 1  2  -0.150000   -6.417651385     8.822806887    -20.290875003  0  0  0 
250 1  2  -0.150000   -5.607593813     7.627070443    -20.290875211  0  0  0 
251 1  2  -0.150000   -5.172463228     9.605924924    -20.290875103  0  0  0 
252 1  2  -0.150000   -4.445585926     8.357875136    -20.290875001  0  0  0 
253 1  2  -0.150000   -4.443045607     9.964311997    -21.520624979  0  0  0 
254 1  2  -0.150000   -3.899297477     8.626284768    -21.520625020  0  0  0 
255 1  2  -0.150000   -3.062248404    10.471427721    -21.520625120  0  0  0 
256 1  2  -0.150000   -2.610739354     9.099524493    -21.520624920  0  0  0 
257 1  2  -0.150000   -2.274257452    10.670328677    -20.290875264  0  0  0 
258 1  2  -0.150000   -2.020583103     9.248488947    -20.290874840  0  0  0 
259 1  2  -0.150000   -0.818198688    10.879278729    -20.290874943  0  0  0 
260 1  2  -0.150000   -0.661790995     9.443480863    -20.290874967  0  0  0 
261 1  2  -0.150000   -0.006073399    10.910000657    -21.520625002  0  0  0 
262 1  2  -0.150000   -0.053559605     9.466489673    -21.520625143  0  0  0 
263 1  2  -0.150000    1.461610123    10.811652968    -21.520624952  0  0  0 
264 1  2  -0.150000    1.316080747     9.374711735    -21.520625209  0  0  0 
265 1  2  -0.150000    2.262375906    10.672853223    -20.290874865  0  0  0 
266 1  2  -0.150000    1.915804657     9.270759336    -20.290874871  0  0  0 
267 1  2  -0.150000    3.677539433    10.271506193    -20.290874964  0  0  0 
268 1  2  -0.150000    3.236433428     8.896222803    -20.290874742  0  0  0 
269 1  2  -0.150000    4.431948485     9.969251050    -21.520625082  0  0  0 
270 1  2  -0.150000    3.801439049     8.669852437    -21.520625025  0  0  0 
271 1  2  -0.150000    5.732742599     9.282445503    -21.520624949  0  0  0 
272 1  2  -0.150000    5.015338461     8.028926371    -21.520624984  0  0  0 
273 1  2  -0.150000    6.407823674     8.829944990    -20.290874893  0  0  0 
274 1  2  -0.150000    5.520932364     7.690031509    -20.290874945  0  0  0 
275 1  2  -0.150000    7.537397534     7.887697647    -20.290874772  0  0  0 
276 1  2  -0.150000    6.575049257     6.810727479    -20.290874967  0  0  0 
277 1  2  -0.150000    8.103646402     7.304728200    -21.520625176  0  0  0 
278 1  2  -0.150000    6.999134600     6.374119456    -21.520624766  0  0  0 
279 1  2  -0.150000    9.012632325     6.148219755    -21.520624892  0  0  0 
280 1  2  -0.150000    7.847399102     5.294867257    -21.520624868  0  0  0 
281 1  2  -0.150000    9.445301240     5.460259811    -20.290874714  0  0  0 
282 1  2  -0.150000    8.171441272     4.779627949    -20.290875150  0  0  0 
283 1  2  -0.150000   10.093972064     4.140035039    -20.290875012  0  0  0 
284 1  2  -0.150000    8.776780029     3.547595939    -20.290874699  0  0  0 
285 1  2  -0.150000   10.374151214     3.377151689    -21.520625028  0  0  0 
286 1  2  -0.150000    8.986616786     2.976243740    -21.520624870  0  0  0 
287 1  2  -0.150000   10.734156743     1.950910695    -21.520624926  0  0  0 
288 1  2  -0.150000    9.322573461     1.645277581    -21.520625065  0  0  0 
289 1  2  -0.150000   10.849600802     1.146445573    -20.290874956  0  0  0 
290 1  2  -0.150000    9.409033863     1.042783380    -20.290874894  0  0  0 
291 1  2  -0.150000   10.905206802    -0.323478041    -20.290874848  0  0  0 
292 1  2  -0.150000    9.460925315    -0.328947312    -20.290874917  0  0  0 
293 1  2  -0.150000   10.850870280    -1.134365716    -21.520624917  0  0  0 
294 1  2  -0.150000    9.420230637    -0.936251712    -21.520625212  0  0  0 
295 1  2  -0.150000   10.599646662    -2.583729037    -21.520624950  0  0  0 
296 1  2  -0.150000    9.185789104    -2.288795605    -21.520624932  0  0  0 
297 1  2  -0.150000   10.377904363    -3.365599697    -20.290875125  0  0  0 
298 1  2  -0.150000    9.019717928    -2.874368067    -20.290874916  0  0  0 
299 1  2  -0.150000    9.830830828    -4.731058517    -20.290874975  0  0  0 
300 1  2  -0.150000    8.509189635    -4.148612438    -20.290875021  0  0  0 
301 1  2  -0.150000    9.451374105    -5.449740505    -21.520625003  0  0  0 
302 1  2  -0.150000    8.225000066    -4.686860694    -21.520624951  0  0  0 
303 1  2  -0.150000    8.632360744    -6.671617833    -21.520624996  0  0  0 
304 1  2  -0.150000    7.460697814    -5.827115106    -21.520624998  0  0  0 
305 1  2  -0.150000    8.111773873    -7.295701445    -20.290874903  0  0  0 
306 1  2  -0.150000    7.070810415    -6.294515175    -20.290875029  0  0  0 
307 1  2  -0.150000    7.056615614    -8.320595672    -20.290875043  0  0  0 
308 1  2  -0.150000    6.086138053    -7.250945181    -20.290875009  0  0  0 
309 1  2  -0.150000    6.417650555    -8.822805653    -21.520624928  0  0  0 
310 1  2  -0.150000    5.607592817    -7.627069342    -21.520624847  0  0  0 
311 1  2  -0.150000    5.172462612    -9.605923883    -21.520625129  0  0  0 
312 1  2  -0.150000    4.445585036    -8.357874277    -21.520625063  0  0  0 
313 1  2  -0.150000    4.443045152    -9.964311133    -20.290874862  0  0  0 
314 1  2  -0.150000    3.899296596    -8.626284092    -20.290874845  0  0  0 
315 1  2  -0.150000    3.062248103    -10.471427315   -20.290874996  0  0  0 
316 1  2  -0.150000    2.610738594    -9.099524246    -20.290874874  0  0  0 
317 1  2  -0.150000    2.274257219    -10.670328532   -21.520624914  0  0  0 
318 1  2  -0.150000    2.020582415    -9.248488897    -21.520625137  0  0  0 
319 1  2  -0.150000    0.818198482    -10.879279076   -21.520624903  0  0  0 
320 1  2  -0.150000    0.661790330    -9.443481266    -21.520625067  0  0  0 
321 1  2  -0.150000    0.006073197    -10.910001232   -20.290875123  0  0  0 
322 1  2  -0.150000    0.053559019    -9.466490248    -20.290874811  0  0  0 
323 1  2  -0.150000   -1.461610406    -10.811653914   -20.290874921  0  0  0 
324 1  2  -0.150000   -1.316081351    -9.374712657    -20.290875074  0  0  0 
325 1  2  -0.150000   -2.262376317    -10.672854291   -21.520624920  0  0  0 
326 1  2  -0.150000   -1.915805201    -9.270760368    -21.520624994  0  0  0 
327 1  2  -0.150000   -3.677539897    -10.271507355   -21.520625071  0  0  0 
328 1  2  -0.150000   -3.236433963    -8.896223935    -21.520624873  0  0  0 
329 1  2  -0.150000   -4.431949030    -9.969252186    -20.290875007  0  0  0 
330 1  2  -0.150000   -3.801439524    -8.669853590    -20.290874996  0  0  0 
331 1  2  -0.150000   -5.732743130    -9.282446530    -20.290875059  0  0  0 
332 1  2  -0.150000   -5.015338871    -8.028927454    -20.290874854  0  0  0 
333 1  2  -0.150000   -6.407824184    -8.829945900    -21.520625042  0  0  0 
334 1  2  -0.150000   -5.520932662    -7.690032582    -21.520625082  0  0  0 
335 1  2  -0.150000   -7.537397902    -7.887698280    -21.520624820  0  0  0 
336 1  2  -0.150000   -6.575049382    -6.810728333    -21.520625185  0  0  0 
337 1  2  -0.150000   -8.103646650    -7.304728649    -20.290875005  0  0  0 